16
pbc=[T, T, T] virial=[[-4.36351251, -0.21009492, 0.19076729], [-0.21009492, -4.36914179, -0.06695672], [0.19076729, -0.06695672, -4.59278921]] energy=-71.08456962 Lattice="5.77580400 0.00000000 0.00000000 0.00000000 5.77580400 0.00000000 0.00000000 0.00000000 5.77580400" Properties=species:S:1:pos:R:3:momenta:R:3:forces:R:3:masses:R:1:Z:I:1
Al         0.01325329      -0.04711244       0.02934116         0.00000000       0.00000000       0.00000000         0.06035213       0.44341854      -0.08642074        26.98153850         13
Ni         1.49608276       1.39413200       1.49578823         0.00000000       0.00000000       0.00000000        -0.28099308       0.60934602      -0.40227077        58.69340000         28
Al         2.92280727       0.04294248       0.01056659         0.00000000       0.00000000       0.00000000        -0.13167450      -0.82697119      -0.07709362        26.98153850         13
Ni         4.27550956       1.46584061       1.50089834         0.00000000       0.00000000       0.00000000         0.48137361      -0.25270171      -0.28284352        58.69340000         28
Al        -0.01199682       2.89644054      -0.04837772         0.00000000       0.00000000       0.00000000         0.48718212      -0.34663878       0.31816133        26.98153850         13
Ni         1.48658763       4.31738680       1.48213452         0.00000000       0.00000000       0.00000000        -0.11565861      -0.07842190      -0.33459692        58.69340000         28
Al         2.92513728       2.84310001      -0.00672812         0.00000000       0.00000000       0.00000000        -0.49397052       0.63115601       0.01105374        26.98153850         13
Ni         4.36527460       4.28217718       1.47472561         0.00000000       0.00000000       0.00000000        -0.24890091       0.46792930      -0.23940313        58.69340000         28
Al         0.04568492      -0.00411956       2.89760260         0.00000000       0.00000000       0.00000000        -0.74407485      -0.04612664      -0.14448785        26.98153850         13
Ni         1.49329034       1.39717357       4.28679275         0.00000000       0.00000000       0.00000000        -0.35161598       0.48111829       0.32945205        58.69340000         28
Al         2.85584383       0.01664554       2.88521983         0.00000000       0.00000000       0.00000000         0.94119717      -0.33135426       0.12167469        26.98153850         13
Ni         4.36295597       1.43860380       4.33888811         0.00000000       0.00000000       0.00000000        -0.05398127      -0.21045023      -0.26800293        58.69340000         28
Al        -0.01914193       2.86248059       2.84645453         0.00000000       0.00000000       0.00000000         0.62500154      -0.00325699       0.34867895        26.98153850         13
Ni         1.43472768       4.33215755       4.27566979         0.00000000       0.00000000       0.00000000         0.20575824      -0.10185514       0.40725843        58.69340000         28
Al         2.93854881       2.93554371       2.90507193         0.00000000       0.00000000       0.00000000        -0.62850563      -0.53924675       0.04356204        26.98153850         13
Ni         4.31315198       4.35322280       4.28907735         0.00000000       0.00000000       0.00000000         0.24851053       0.10405543       0.25527824        58.69340000         28
16
pbc=[T, T, T] virial=[[-4.72296231, 0.10770316, 0.04705264], [0.10770316, -4.44985156, 0.15494654], [0.04705264, 0.15494654, -4.65731937]] energy=-71.10692644 Lattice="5.77580400 0.00000000 0.00000000 0.00000000 5.77580400 0.00000000 0.00000000 0.00000000 5.77580400" Properties=species:S:1:pos:R:3:momenta:R:3:forces:R:3:masses:R:1:Z:I:1
Al         0.05224653       0.03267374       0.02527465         0.00000000       0.00000000       0.00000000        -0.40867387      -0.75313133      -0.22342501        26.98153850         13
Ni         1.41803039       1.40844462       1.46286718         0.00000000       0.00000000       0.00000000         0.28360727       0.30746217       0.00819188        58.69340000         28
Al         2.93548789      -0.03567458       0.04482828         0.00000000       0.00000000       0.00000000        -0.58822214       0.27807235      -0.45544851        26.98153850         13
Ni         4.27708782       1.43074858       1.39143132         0.00000000       0.00000000       0.00000000         0.45493233       0.24593762       0.28492111        58.69340000         28
Al         0.05462023       2.86836651      -0.03222376         0.00000000       0.00000000       0.00000000        -0.79440613       0.68037383       0.63975310        26.98153850         13
Ni         1.48778615       4.30631728       1.45386494         0.00000000       0.00000000       0.00000000        -0.27437497       0.03086123      -0.01663874        58.69340000         28
Al         2.87446614       2.90878051      -0.05389301         0.00000000       0.00000000       0.00000000         0.21574697      -0.23847703       0.37374014        26.98153850         13
Ni         4.32016366       4.30026795       1.46608892         0.00000000       0.00000000       0.00000000         0.03047206      -0.01435107      -0.29497010        58.69340000         28
Al        -0.02706266      -0.03696623       2.86984366         0.00000000       0.00000000       0.00000000         0.05818374       0.63426537       0.17342424        26.98153850         13
Ni         1.38975990       1.48194911       4.37424342         0.00000000       0.00000000       0.00000000         0.50861680      -0.55720587      -0.62972614        58.69340000         28
Al         2.86591448      -0.03369110       2.90723495         0.00000000       0.00000000       0.00000000         0.07957480       0.45601762       0.00559345        26.98153850         13
Ni         4.33057591       1.43894273       4.37552865         0.00000000       0.00000000       0.00000000         0.08150103      -0.14923584      -0.23421530        58.69340000         28
Al        -0.03330687       2.93453193       2.90444718         0.00000000       0.00000000       0.00000000         0.10444227      -0.73547073      -0.28996380        26.98153850         13
Ni         1.44487684       4.33844199       4.28598032         0.00000000       0.00000000       0.00000000         0.01178738      -0.00629810       0.27977198        58.69340000         28
Al         2.87491156       2.83643100       2.86365388         0.00000000       0.00000000       0.00000000         0.02172971       0.11529958       0.21700498        26.98153850         13
Ni         4.30890642       4.37345945       4.32343371         0.00000000       0.00000000       0.00000000         0.21508274      -0.29411980       0.16198674        58.69340000         28
16
pbc=[T, T, T] virial=[[-4.40385991, 0.18877100, -0.06501969], [0.18877100, -4.55865326, -0.13920038], [-0.06501969, -0.13920038, -4.52425269]] energy=-71.09144668 Lattice="5.77580400 0.00000000 0.00000000 0.00000000 5.77580400 0.00000000 0.00000000 0.00000000 5.77580400" Properties=species:S:1:pos:R:3:momenta:R:3:forces:R:3:masses:R:1:Z:I:1
Al        -0.02165874       0.00817663       0.03619842         0.00000000       0.00000000       0.00000000         0.07065560      -0.05616064      -0.10834171        26.98153850         13
Ni         1.44041822       1.47545609       1.44221970         0.00000000       0.00000000       0.00000000         0.04173430      -0.31154691       0.21629253        58.69340000         28
Al         2.85061470      -0.01876618      -0.04317606         0.00000000       0.00000000       0.00000000         0.60994239       0.30119585       0.77881543        26.98153850         13
Ni         4.37088441       1.50072939       1.41539134         0.00000000       0.00000000       0.00000000        -0.33146955      -0.27472079       0.15420718        58.69340000         28
Al         0.02150337       2.90757840       0.03357000         0.00000000       0.00000000       0.00000000        -0.18788871      -0.10949714      -0.59650492        26.98153850         13
Ni         1.46916905       4.30906112       1.43550361         0.00000000       0.00000000       0.00000000        -0.06806185       0.45641253       0.27103501        58.69340000         28
Al         2.86501207       2.91589392       0.01694803         0.00000000       0.00000000       0.00000000         0.38504288      -0.51604927      -0.55601775        26.98153850         13
Ni         4.27916221       4.28010021       1.42543158         0.00000000       0.00000000       0.00000000         0.29689076       0.51703450       0.01732071        58.69340000         28
Al        -0.05461135      -0.03033757       2.91285060         0.00000000       0.00000000       0.00000000         0.92003054       0.52749162      -0.44013416        26.98153850         13
Ni         1.47849131       1.39430515       4.34494121         0.00000000       0.00000000       0.00000000        -0.43175840       0.49678880      -0.19630804        58.69340000         28
Al         2.94459822       0.03035290       2.92522047         0.00000000       0.00000000       0.00000000        -0.66058586      -0.25830667      -0.76562895        26.98153850         13
Ni         4.32562359       1.46538749       4.32841603         0.00000000       0.00000000       0.00000000         0.15861023       0.17588175       0.30875617        58.69340000         28
Al         0.00176072       2.93106335       2.88127273         0.00000000       0.00000000       0.00000000         0.31089480      -0.51805009       0.28457227        26.98153850         13
Ni         1.45883220       4.32553976       4.37810569         0.00000000       0.00000000       0.00000000        -0.25138103       0.10092845      -0.48083517        58.69340000         28
Al         2.92046852       2.90406386       2.86212921         0.00000000       0.00000000       0.00000000        -0.39547903      -0.13139340       0.57408194        26.98153850         13
Ni         4.38577319       4.35657489       4.30823177         0.00000000       0.00000000       0.00000000        -0.46717706      -0.40000859       0.53868945        58.69340000         28
16
pbc=[T, T, T] virial=[[-4.86466290, -0.05056793, -0.05665709], [-0.05056793, -4.95832828, 0.00301726], [-0.05665709, 0.00301726, -5.12282588]] energy=-71.19679404 Lattice="5.77580400 0.00000000 0.00000000 0.00000000 5.77580400 0.00000000 0.00000000 0.00000000 5.77580400" Properties=species:S:1:pos:R:3:momenta:R:3:forces:R:3:masses:R:1:Z:I:1
Al         0.01282105      -0.00231214      -0.00928253         0.00000000       0.00000000       0.00000000         0.13851371       0.04153524       0.04304621        26.98153850         13
Ni         1.43644722       1.44831493       1.48311268         0.00000000       0.00000000       0.00000000         0.26448531       0.04312719      -0.20588661        58.69340000         28
Al         2.88721219       0.04326359      -0.03487260         0.00000000       0.00000000       0.00000000        -0.01319300      -0.18111239       0.26739841        26.98153850         13
Ni         4.32408910       1.46984232       1.47800906         0.00000000       0.00000000       0.00000000         0.20715606      -0.26786956      -0.58250158        58.69340000         28
Al         0.03618164       2.85544150       0.01201918         0.00000000       0.00000000       0.00000000        -0.07617768       0.25980129      -0.06175003        26.98153850         13
Ni         1.49696804       4.29446352       1.48723033         0.00000000       0.00000000       0.00000000        -0.15741551       0.19328486      -0.46505334        58.69340000         28
Al         2.93486825       2.90461063      -0.05197126         0.00000000       0.00000000       0.00000000        -0.26919557      -0.16714858       0.40167262        26.98153850         13
Ni         4.37864452       4.33022259       1.41240481         0.00000000       0.00000000       0.00000000        -0.33892451       0.03168751      -0.22951145        58.69340000         28
Al        -0.00125458      -0.00765906       2.83639206         0.00000000       0.00000000       0.00000000         0.26367190      -0.00420479       0.50736119        26.98153850         13
Ni         1.39319074       1.48308778       4.28090299         0.00000000       0.00000000       0.00000000         0.38400181      -0.19887212      -0.10101620        58.69340000         28
Al         2.94211027      -0.01428966       2.85928881         0.00000000       0.00000000       0.00000000        -0.40528801      -0.00940753       0.31164894        26.98153850         13
Ni         4.34696165       1.44975909       4.32728834         0.00000000       0.00000000       0.00000000         0.22048173      -0.08276299      -0.17371526        58.69340000         28
Al        -0.03306751       2.90757231       2.85911482         0.00000000       0.00000000       0.00000000         0.49327535      -0.02102650       0.37670744        26.98153850         13
Ni         1.47273350       4.31049889       4.35461428         0.00000000       0.00000000       0.00000000        -0.16317414       0.08077862      -0.44365384        58.69340000         28
Al         2.93989175       2.87203944       2.84347792         0.00000000       0.00000000       0.00000000        -0.44668734       0.24614315       0.50963278        26.98153850         13
Ni         4.37872392       4.33548896       4.35323388         0.00000000       0.00000000       0.00000000        -0.10153011       0.03604660      -0.15437928        58.69340000         28
16
pbc=[T, T, T] virial=[[-4.76334325, 0.07760583, -0.05866549], [0.07760583, -4.79729682, 0.10943418], [-0.05866549, 0.10943418, -4.76582323]] energy=-71.13966169 Lattice="5.77580400 0.00000000 0.00000000 0.00000000 5.77580400 0.00000000 0.00000000 0.00000000 5.77580400" Properties=species:S:1:pos:R:3:momenta:R:3:forces:R:3:masses:R:1:Z:I:1
Al         0.05024780      -0.00802971      -0.03583423         0.00000000       0.00000000       0.00000000        -0.40961709       0.26214451       0.37208617        26.98153850         13
Ni         1.44325680       1.38640547       1.49680478         0.00000000       0.00000000       0.00000000         0.05001770       0.33669871      -0.54605552        58.69340000         28
Al         2.91025919      -0.02745489       0.01689882         0.00000000       0.00000000       0.00000000        -0.17995847       0.00007223       0.16418368        26.98153850         13
Ni         4.36333169       1.48324243       1.46876009         0.00000000       0.00000000       0.00000000         0.00060328      -0.52043683      -0.21935313        58.69340000         28
Al         0.04529417       2.90579292       0.02395552         0.00000000       0.00000000       0.00000000        -0.43943541      -0.43547336      -0.12934117        26.98153850         13
Ni         1.43881711       4.29086151       1.44406826         0.00000000       0.00000000       0.00000000         0.21980157       0.23686432      -0.00611505        58.69340000         28
Al         2.92652777       2.83017586       0.00796461         0.00000000       0.00000000       0.00000000        -0.30908446       0.48350487       0.36831581        26.98153850         13
Ni         4.37413499       4.38138614       1.48352693         0.00000000       0.00000000       0.00000000        -0.18718771      -0.47527174      -0.28050061        58.69340000         28
Al        -0.00278958      -0.01131447       2.86964057         0.00000000       0.00000000       0.00000000        -0.09878335      -0.04130063       0.55073514        26.98153850         13
Ni         1.47780565       1.48057433       4.33259266         0.00000000       0.00000000       0.00000000        -0.08867754      -0.33420990       0.05004783        58.69340000         28
Al         2.84282665      -0.00107861       2.88032118         0.00000000       0.00000000       0.00000000         0.47379099      -0.29807933       0.34490264        26.98153850         13
Ni         4.29559324       1.40121513       4.38937046         0.00000000       0.00000000       0.00000000         0.42229458       0.14126282      -0.48440202        58.69340000         28
Al         0.04526743       2.85089091       2.87795655         0.00000000       0.00000000       0.00000000        -0.47432382       0.33457049       0.50582299        26.98153850         13
Ni         1.41752412       4.31891056       4.38194636         0.00000000       0.00000000       0.00000000         0.50313170      -0.15038805      -0.44854987        58.69340000         28
Al         2.90117145       2.86156268       2.88493380         0.00000000       0.00000000       0.00000000         0.09525833       0.34743982       0.07430390        26.98153850         13
Ni         4.28498441       4.29923332       4.36514469         0.00000000       0.00000000       0.00000000         0.42216971       0.11260207      -0.31608076        58.69340000         28
16
pbc=[T, T, T] virial=[[-4.72901204, -0.29238788, 0.02337683], [-0.29238788, -4.96901299, -0.13174634], [0.02337683, -0.13174634, -4.86596084]] energy=-71.16952350 Lattice="5.77580400 0.00000000 0.00000000 0.00000000 5.77580400 0.00000000 0.00000000 0.00000000 5.77580400" Properties=species:S:1:pos:R:3:momenta:R:3:forces:R:3:masses:R:1:Z:I:1
Al         0.00843432      -0.03476554      -0.02072177         0.00000000       0.00000000       0.00000000        -0.39794692       0.33624871       0.07238613        26.98153850         13
Ni         1.38745640       1.45310267       1.41423505         0.00000000       0.00000000       0.00000000         0.36718382      -0.14380060      -0.12497706        58.69340000         28
Al         2.84849100      -0.02959410      -0.04623615         0.00000000       0.00000000       0.00000000         0.50557972       0.24657873       0.67727154        26.98153850         13
Ni         4.29619332       1.44455304       1.49713043         0.00000000       0.00000000       0.00000000         0.09044277      -0.33883705      -0.41572409        58.69340000         28
Al        -0.05401117       2.86317098      -0.02162867         0.00000000       0.00000000       0.00000000         0.44438043       0.12430925      -0.13659792        26.98153850         13
Ni         1.42989386       4.35068508       1.41526791         0.00000000       0.00000000       0.00000000        -0.10864025      -0.15323382       0.12469220        58.69340000         28
Al         2.93474311       2.92071614       0.03879006         0.00000000       0.00000000       0.00000000        -0.56208033      -0.27438137      -0.44766371        26.98153850         13
Ni         4.37454117       4.38136165       1.45609171         0.00000000       0.00000000       0.00000000        -0.37154207      -0.08643257       0.04357296        58.69340000         28
Al        -0.02040367       0.04348081       2.88945423         0.00000000       0.00000000       0.00000000         0.17748865      -0.20835860      -0.05213434        26.98153850         13
Ni         1.48365950       1.40552522       4.37318855         0.00000000       0.00000000       0.00000000        -0.37500563       0.56422756      -0.17887073        58.69340000         28
Al         2.83063355      -0.01964574       2.90710123         0.00000000       0.00000000       0.00000000         0.26347066       0.10828686      -0.59070584        26.98153850         13
Ni         4.31941264       1.41466952       4.31217939         0.00000000       0.00000000       0.00000000        -0.16432588       0.16012099       0.00806888        58.69340000         28
Al         0.00715737       2.90703854       2.83671249         0.00000000       0.00000000       0.00000000        -0.20211981      -0.11022493       0.50131028        26.98153850         13
Ni         1.40112045       4.32685941       4.28781825         0.00000000       0.00000000       0.00000000         0.09042537      -0.24267807       0.25254825        58.69340000         28
Al         2.85983206       2.86300330       2.86494986         0.00000000       0.00000000       0.00000000         0.09521578       0.26865092       0.32130001        26.98153850         13
Ni         4.30881323       4.36272307       4.29433348         0.00000000       0.00000000       0.00000000         0.14747368      -0.25047600      -0.05447657        58.69340000         28
16
pbc=[T, T, T] virial=[[-4.55663232, -0.03993858, -0.14448194], [-0.03993858, -4.53946682, 0.18696170], [-0.14448194, 0.18696170, -4.56657614]] energy=-71.09187153 Lattice="5.77580400 0.00000000 0.00000000 0.00000000 5.77580400 0.00000000 0.00000000 0.00000000 5.77580400" Properties=species:S:1:pos:R:3:momenta:R:3:forces:R:3:masses:R:1:Z:I:1
Al        -0.04729871       0.01212795      -0.04747686         0.00000000       0.00000000       0.00000000         0.38770298      -0.11880310       0.58771264        26.98153850         13
Ni         1.45752138       1.48916057       1.44163957         0.00000000       0.00000000       0.00000000        -0.22672653      -0.32628431      -0.24271071        58.69340000         28
Al         2.92031025      -0.04107725      -0.03811552         0.00000000       0.00000000       0.00000000        -0.41752920       0.57829338      -0.02301663        26.98153850         13
Ni         4.31004399       1.46257440       1.47994401         0.00000000       0.00000000       0.00000000         0.12397112      -0.18090935      -0.14121371        58.69340000         28
Al        -0.02372716       2.84782935      -0.03199165         0.00000000       0.00000000       0.00000000         0.27671360       0.33479102       0.44680556        26.98153850         13
Ni         1.38692106       4.36315148       1.40856857         0.00000000       0.00000000       0.00000000         0.11338343      -0.24290228      -0.08396084        58.69340000         28
Al         2.90815073       2.94452195      -0.01585013         0.00000000       0.00000000       0.00000000        -0.30057928      -0.64570255      -0.04074144        26.98153850         13
Ni         4.27488115       4.35612465       1.48361814         0.00000000       0.00000000       0.00000000         0.62747071      -0.12699994      -0.15152947        58.69340000         28
Al         0.03267381      -0.05367359       2.94245876         0.00000000       0.00000000       0.00000000        -0.58174993       0.69274967      -0.88830284        26.98153850         13
Ni         1.47437902       1.39430996       4.27466841         0.00000000       0.00000000       0.00000000        -0.07268794       0.47240217       0.48404169        58.69340000         28
Al         2.84100692       0.01555239       2.84037705         0.00000000       0.00000000       0.00000000         0.51904434      -0.21751120       0.30353837        26.98153850         13
Ni         4.32987842       1.47863692       4.30168836         0.00000000       0.00000000       0.00000000        -0.37365815      -0.23729609      -0.18048198        58.69340000         28
Al        -0.01233364       2.89245120       2.91709639         0.00000000       0.00000000       0.00000000         0.17156437      -0.36617300      -0.73698168        26.98153850         13
Ni         1.42533856       4.29436069       4.30928268         0.00000000       0.00000000       0.00000000         0.14777393       0.18692672       0.32911648        58.69340000         28
Al         2.85351882       2.91292294       2.85666009         0.00000000       0.00000000       0.00000000         0.10109852      -0.03436576       0.21239800        26.98153850         13
Ni         4.37209612       4.29051549       4.27996616         0.00000000       0.00000000       0.00000000        -0.49579196       0.23178462       0.12532657        58.69340000         28
16
pbc=[T, T, T] virial=[[-4.49203017, 0.09202444, -0.09063801], [0.09202444, -4.50042002, 0.09158865], [-0.09063801, 0.09158865, -4.69313091]] energy=-71.08298610 Lattice="5.77580400 0.00000000 0.00000000 0.00000000 5.77580400 0.00000000 0.00000000 0.00000000 5.77580400" Properties=species:S:1:pos:R:3:momenta:R:3:forces:R:3:masses:R:1:Z:I:1
Al         0.02343974      -0.00724238      -0.02867179         0.00000000       0.00000000       0.00000000        -0.05307941      -0.08700525       0.37241364        26.98153850         13
Ni         1.49653743       1.42724814       1.46234549         0.00000000       0.00000000       0.00000000        -0.55737079      -0.05509581      -0.33259362        58.69340000         28
Al         2.90946123       0.04243491      -0.03320334         0.00000000       0.00000000       0.00000000        -0.41011588      -0.60725618       0.25818287        26.98153850         13
Ni         4.35263658       1.40223989       1.40091780         0.00000000       0.00000000       0.00000000        -0.03059906       0.25997164       0.21753531        58.69340000         28
Al        -0.02700567       2.84071836      -0.05477371         0.00000000       0.00000000       0.00000000         0.59613289       0.49749679       0.70214774        26.98153850         13
Ni         1.38917281       4.31088593       1.44483542         0.00000000       0.00000000       0.00000000         0.27004097      -0.02525579      -0.30971408        58.69340000         28
Al         2.91889362       2.87347972      -0.05059940         0.00000000       0.00000000       0.00000000        -0.69805691       0.35341604       0.60048224        26.98153850         13
Ni         4.34441265       4.28342489       1.49223282         0.00000000       0.00000000       0.00000000         0.04459618       0.12515666      -0.69222183        58.69340000         28
Al         0.00238860      -0.01545207       2.89666089         0.00000000       0.00000000       0.00000000        -0.09326931       0.27835054      -0.07836777        26.98153850         13
Ni         1.44072218       1.48211722       4.28884127         0.00000000       0.00000000       0.00000000         0.07629795      -0.50512412       0.07273248        58.69340000         28
Al         2.92430622      -0.05511503       2.83329939         0.00000000       0.00000000       0.00000000        -0.27037011       0.31993534       0.48751568        26.98153850         13
Ni         4.33034885       1.44876305       4.38936402         0.00000000       0.00000000       0.00000000        -0.01953417      -0.27151077      -0.87021948        58.69340000         28
Al        -0.02256537       2.89199544       2.89623135         0.00000000       0.00000000       0.00000000        -0.12049338      -0.25669745      -0.10577905        26.98153850         13
Ni         1.42724143       4.37025853       4.32406464         0.00000000       0.00000000       0.00000000         0.30538223      -0.40258974      -0.03806828        58.69340000         28
Al         2.83336239       2.84142203       2.84736844         0.00000000       0.00000000       0.00000000         0.68588913       0.37650707       0.29488043        26.98153850         13
Ni         4.29056393       4.32933388       4.38592108         0.00000000       0.00000000       0.00000000         0.27454968      -0.00029898      -0.57892629        58.69340000         28
16
pbc=[T, T, T] virial=[[-4.61981815, -0.02378170, 0.03406313], [-0.02378170, -4.58755625, 0.26531434], [0.03406313, 0.26531434, -4.32384230]] energy=-71.09359879 Lattice="5.77580400 0.00000000 0.00000000 0.00000000 5.77580400 0.00000000 0.00000000 0.00000000 5.77580400" Properties=species:S:1:pos:R:3:momenta:R:3:forces:R:3:masses:R:1:Z:I:1
Al        -0.03552331       0.03550770      -0.00287420         0.00000000       0.00000000       0.00000000         0.49010259      -0.05853225       0.37527774        26.98153850         13
Ni         1.49725124       1.39874228       1.42436800         0.00000000       0.00000000       0.00000000        -0.67320586       0.41476435       0.19104337        58.69340000         28
Al         2.92488030       0.02343905       0.04868794         0.00000000       0.00000000       0.00000000        -0.26610772      -0.46626272      -0.79780095        26.98153850         13
Ni         4.31281055       1.46139464       1.46652546         0.00000000       0.00000000       0.00000000         0.23214746       0.00988550       0.09594926        58.69340000         28
Al        -0.03929682       2.94320815      -0.00591078         0.00000000       0.00000000       0.00000000         0.48329346      -0.32663830       0.48904546        26.98153850         13
Ni         1.48374983       4.33116276       1.48709319         0.00000000       0.00000000       0.00000000        -0.61625058      -0.09571008      -0.44862889        58.69340000         28
Al         2.88732478       2.85328979      -0.00017430         0.00000000       0.00000000       0.00000000        -0.02373611       0.71253093      -0.04377216        26.98153850         13
Ni         4.36820688       4.34990049       1.46065761         0.00000000       0.00000000       0.00000000        -0.27065652      -0.11234465       0.01465572        58.69340000         28
Al        -0.02422891       0.03063019       2.93337274         0.00000000       0.00000000       0.00000000         0.25735140       0.11820993      -0.54802519        26.98153850         13
Ni         1.43957052       1.45551119       4.37408053         0.00000000       0.00000000       0.00000000        -0.02029402      -0.10529048      -0.18948447        58.69340000         28
Al         2.85503968      -0.05756121       2.84693912         0.00000000       0.00000000       0.00000000         0.42114661       0.64911499       0.92067541        26.98153850         13
Ni         4.36532183       1.49019308       4.32564708         0.00000000       0.00000000       0.00000000        -0.47521216      -0.33856277       0.05095260        58.69340000         28